<?xml version="1.0" encoding="UTF-8"?>

<!-- generated on 2023-10-26 00:07:29 by Eclipse SUMO GUI Version 1.18.0
<configuration xmlns:xsi="http://www.w3.org/2001/XMLSchema-instance" xsi:noNamespaceSchemaLocation="http://sumo.dlr.de/xsd/sumoConfiguration.xsd">

    <input>
        <net-file value="osm.net.xml.gz"/>
        <route-files value="osm.rou.xml"/>
        <additional-files value="osm.poly.xml.gz, stop.add.xml, reroute.add.xml"/>
    </input>

    <output>
        <tripinfo-output value="tripinfo.xml"/>
    </output>

    <time>
        <step-length value="1.00"/>
    </time>

    <processing>
        <ignore-route-errors value="true"/>
        <max-num-vehicles value="100"/>
    </processing>

    <routing>
        <device.rerouting.adaptation-steps value="18"/>
        <device.rerouting.adaptation-interval value="10"/>
    </routing>

    <report>
        <verbose value="true"/>
        <duration-log.statistics value="true"/>
        <no-step-log value="true"/>
    </report>

    <traci_server>
        <remote-port value="63845"/>
    </traci_server>

    <gui_only>
        <gui-settings-file value="osm.view.xml"/>
    </gui_only>

</configuration>
-->

<tripinfos xmlns:xsi="http://www.w3.org/2001/XMLSchema-instance" xsi:noNamespaceSchemaLocation="http://sumo.dlr.de/xsd/tripinfo_file.xsd">
    <tripinfo id="8" depart="8.00" departLane="-49090156#3_0" departPos="5.10" departSpeed="0.00" departDelay="0.00" arrival="18570.00" arrivalLane="-125813719_0" arrivalPos="111.39" arrivalSpeed="5.83" duration="18562.00" routeLength="120783.71" waitingTime="6699.00" waitingCount="235" stopTime="0.00" timeLoss="9912.97" rerouteNo="1326" devices="tripinfo_8" vType="DEFAULT_VEHTYPE" speedFactor="0.94" vaporized=""/>
    <tripinfo id="88" depart="88.00" departLane="-25562204#26_0" departPos="5.10" departSpeed="0.00" departDelay="0.00" arrival="21983.00" arrivalLane="-125948402_0" arrivalPos="455.34" arrivalSpeed="13.70" duration="21895.00" routeLength="215856.58" waitingTime="2760.00" waitingCount="288" stopTime="0.00" timeLoss="8076.96" rerouteNo="2151" devices="tripinfo_88" vType="DEFAULT_VEHTYPE" speedFactor="1.01" vaporized=""/>
    <tripinfo id="76" depart="76.00" departLane="179213203_0" departPos="5.10" departSpeed="0.00" departDelay="0.00" arrival="36812.00" arrivalLane="-125813719_0" arrivalPos="111.39" arrivalSpeed="5.11" duration="36736.00" routeLength="317461.72" waitingTime="7399.00" waitingCount="487" stopTime="0.00" timeLoss="15747.35" rerouteNo="3970" devices="tripinfo_76" vType="DEFAULT_VEHTYPE" speedFactor="1.03" vaporized=""/>
    <tripinfo id="41" depart="41.00" departLane="303691152_0" departPos="5.10" departSpeed="0.00" departDelay="0.00" arrival="45448.00" arrivalLane="-125813719_0" arrivalPos="111.39" arrivalSpeed="7.71" duration="45407.00" routeLength="256165.35" waitingTime="21265.00" waitingCount="397" stopTime="0.00" timeLoss="27527.22" rerouteNo="2721" devices="tripinfo_41" vType="DEFAULT_VEHTYPE" speedFactor="0.96" vaporized=""/>
    <tripinfo id="70" depart="70.00" departLane="25518822_0" departPos="5.10" departSpeed="0.00" departDelay="0.00" arrival="45900.00" arrivalLane="-125948402_0" arrivalPos="455.34" arrivalSpeed="13.30" duration="45830.00" routeLength="420613.49" waitingTime="8828.00" waitingCount="607" stopTime="0.00" timeLoss="18858.03" rerouteNo="4523" devices="tripinfo_70" vType="DEFAULT_VEHTYPE" speedFactor="1.02" vaporized=""/>
    <tripinfo id="43" depart="43.00" departLane="999254424_0" departPos="5.10" departSpeed="0.00" departDelay="0.00" arrival="48088.00" arrivalLane="-125813719_0" arrivalPos="111.39" arrivalSpeed="8.13" duration="48045.00" routeLength="333809.47" waitingTime="17362.00" waitingCount="501" stopTime="0.00" timeLoss="26145.77" rerouteNo="4111" devices="tripinfo_43" vType="DEFAULT_VEHTYPE" speedFactor="1.04" vaporized=""/>
    <tripinfo id="10" depart="10.00" departLane="841705338_0" departPos="5.10" departSpeed="0.00" departDelay="0.00" arrival="56460.00" arrivalLane="-125813719_0" arrivalPos="111.39" arrivalSpeed="13.52" duration="56450.00" routeLength="459940.65" waitingTime="17086.00" waitingCount="679" stopTime="0.00" timeLoss="28651.81" rerouteNo="5224" devices="tripinfo_10" vType="DEFAULT_VEHTYPE" speedFactor="1.09" vaporized=""/>
    <tripinfo id="46" depart="46.00" departLane="833559124_0" departPos="5.10" departSpeed="0.00" departDelay="0.00" arrival="62665.00" arrivalLane="-125813719_0" arrivalPos="111.39" arrivalSpeed="11.59" duration="62619.00" routeLength="493482.80" waitingTime="16440.00" waitingCount="706" stopTime="0.00" timeLoss="28845.99" rerouteNo="5595" devices="tripinfo_46" vType="DEFAULT_VEHTYPE" speedFactor="1.00" vaporized=""/>
    <tripinfo id="6" depart="6.00" departLane="-162154275#0_0" departPos="5.10" departSpeed="0.00" departDelay="0.00" arrival="63602.00" arrivalLane="-125813719_0" arrivalPos="111.39" arrivalSpeed="4.87" duration="63596.00" routeLength="419257.68" waitingTime="25384.00" waitingCount="628" stopTime="0.00" timeLoss="36557.59" rerouteNo="4908" devices="tripinfo_6" vType="DEFAULT_VEHTYPE" speedFactor="1.05" vaporized=""/>
    <tripinfo id="72" depart="72.00" departLane="125947334#0_0" departPos="5.10" departSpeed="0.00" departDelay="0.00" arrival="68312.00" arrivalLane="-125948402_0" arrivalPos="455.34" arrivalSpeed="12.66" duration="68240.00" routeLength="603762.02" waitingTime="11828.00" waitingCount="790" stopTime="0.00" timeLoss="25894.38" rerouteNo="6951" devices="tripinfo_72" vType="DEFAULT_VEHTYPE" speedFactor="0.94" vaporized=""/>
    <tripinfo id="2" depart="2.00" departLane="49713116_0" departPos="5.10" departSpeed="0.00" departDelay="0.00" arrival="69984.00" arrivalLane="-125813719_0" arrivalPos="111.39" arrivalSpeed="5.17" duration="69982.00" routeLength="584288.89" waitingTime="18801.00" waitingCount="816" stopTime="0.00" timeLoss="33021.63" rerouteNo="6279" devices="tripinfo_2" vType="DEFAULT_VEHTYPE" speedFactor="1.01" vaporized=""/>
    <tripinfo id="100" depart="18570.00" departLane="987501966_0" departPos="5.10" departSpeed="0.00" departDelay="18470.00" arrival="72713.00" arrivalLane="-125948402_0" arrivalPos="455.34" arrivalSpeed="14.42" duration="54143.00" routeLength="549694.83" waitingTime="5630.00" waitingCount="681" stopTime="0.00" timeLoss="19737.57" rerouteNo="6727" devices="tripinfo_100" vType="DEFAULT_VEHTYPE" speedFactor="1.06" vaporized=""/>
    <tripinfo id="103" depart="45448.00" departLane="125807797#2_0" departPos="5.10" departSpeed="0.00" departDelay="45345.00" arrival="82573.00" arrivalLane="-125948402_0" arrivalPos="455.34" arrivalSpeed="12.93" duration="37125.00" routeLength="268444.40" waitingTime="12049.00" waitingCount="390" stopTime="0.00" timeLoss="18438.03" rerouteNo="3049" devices="tripinfo_103" vType="DEFAULT_VEHTYPE" speedFactor="0.95" vaporized=""/>
    <tripinfo id="22" depart="22.00" departLane="-25562204#15_0" departPos="5.10" departSpeed="0.00" departDelay="0.00" arrival="84369.00" arrivalLane="-125813719_0" arrivalPos="111.39" arrivalSpeed="10.85" duration="84347.00" routeLength="642141.31" waitingTime="25466.00" waitingCount="966" stopTime="0.00" timeLoss="41003.42" rerouteNo="7114" devices="tripinfo_22" vType="DEFAULT_VEHTYPE" speedFactor="0.97" vaporized=""/>
    <tripinfo id="105" depart="62665.00" departLane="-841720726_0" departPos="5.10" departSpeed="0.00" departDelay="62560.00" arrival="91174.00" arrivalLane="-125948402_0" arrivalPos="455.34" arrivalSpeed="13.91" duration="28509.00" routeLength="245843.82" waitingTime="7073.00" waitingCount="412" stopTime="0.00" timeLoss="13449.72" rerouteNo="2760" devices="tripinfo_105" vType="DEFAULT_VEHTYPE" speedFactor="1.07" vaporized=""/>
    <tripinfo id="63" depart="63.00" departLane="-125947334#2_0" departPos="5.10" departSpeed="0.00" departDelay="0.00" arrival="92424.00" arrivalLane="-125813719_0" arrivalPos="111.39" arrivalSpeed="9.74" duration="92361.00" routeLength="595642.13" waitingTime="36475.00" waitingCount="992" stopTime="0.00" timeLoss="51724.14" rerouteNo="6664" devices="tripinfo_63" vType="DEFAULT_VEHTYPE" speedFactor="0.99" vaporized=""/>
    <tripinfo id="66" depart="67.00" departLane="951261274#0_0" departPos="5.10" departSpeed="0.00" departDelay="1.00" arrival="92432.00" arrivalLane="-125813719_0" arrivalPos="111.39" arrivalSpeed="8.69" duration="92365.00" routeLength="602238.54" waitingTime="32518.00" waitingCount="924" stopTime="0.00" timeLoss="46998.14" rerouteNo="7278" devices="tripinfo_66" vType="DEFAULT_VEHTYPE" speedFactor="0.91" vaporized=""/>
    <tripinfo id="11" depart="11.00" departLane="-958823495#1_0" departPos="5.10" departSpeed="0.00" departDelay="0.00" arrival="97298.00" arrivalLane="-125948402_0" arrivalPos="455.34" arrivalSpeed="13.84" duration="97287.00" routeLength="723628.89" waitingTime="32548.00" waitingCount="1119" stopTime="0.00" timeLoss="50822.72" rerouteNo="8503" devices="tripinfo_11" vType="DEFAULT_VEHTYPE" speedFactor="1.03" vaporized=""/>
</tripinfos>
