<?xml version="1.0" encoding="UTF-8"?>

<!-- generated on 2023-10-23 02:51:23 by Eclipse SUMO GUI Version 1.18.0
<configuration xmlns:xsi="http://www.w3.org/2001/XMLSchema-instance" xsi:noNamespaceSchemaLocation="http://sumo.dlr.de/xsd/sumoConfiguration.xsd">

    <input>
        <net-file value="osm.net.xml.gz"/>
        <route-files value="osm.rou.xml"/>
        <additional-files value="osm.poly.xml.gz, stop.add.xml, reroute.add.xml"/>
    </input>

    <output>
        <tripinfo-output value="tripinfo.xml"/>
    </output>

    <time>
        <step-length value="1.00"/>
    </time>

    <processing>
        <ignore-route-errors value="true"/>
        <max-num-vehicles value="100"/>
    </processing>

    <routing>
        <device.rerouting.adaptation-steps value="18"/>
        <device.rerouting.adaptation-interval value="10"/>
    </routing>

    <report>
        <verbose value="true"/>
        <duration-log.statistics value="true"/>
        <no-step-log value="true"/>
    </report>

    <traci_server>
        <remote-port value="64306"/>
    </traci_server>

    <gui_only>
        <gui-settings-file value="osm.view.xml"/>
    </gui_only>

</configuration>
-->

<tripinfos xmlns:xsi="http://www.w3.org/2001/XMLSchema-instance" xsi:noNamespaceSchemaLocation="http://sumo.dlr.de/xsd/tripinfo_file.xsd">
    <tripinfo id="62" depart="68.00" departLane="-1009472075_0" departPos="5.10" departSpeed="0.00" departDelay="6.00" arrival="5714.00" arrivalLane="-125813719_0" arrivalPos="111.39" arrivalSpeed="14.09" duration="5646.00" routeLength="59607.52" waitingTime="658.00" waitingCount="75" stopTime="0.00" timeLoss="2155.47" rerouteNo="615" devices="tripinfo_62" vType="DEFAULT_VEHTYPE" speedFactor="1.02" vaporized=""/>
    <tripinfo id="87" depart="87.00" departLane="841705340#1_0" departPos="5.10" departSpeed="0.00" departDelay="0.00" arrival="17656.00" arrivalLane="-183715382_0" arrivalPos="174.83" arrivalSpeed="13.41" duration="17569.00" routeLength="175591.51" waitingTime="2486.00" waitingCount="250" stopTime="0.00" timeLoss="6641.27" rerouteNo="1808" devices="tripinfo_87" vType="DEFAULT_VEHTYPE" speedFactor="1.04" vaporized=""/>
    <tripinfo id="1" depart="1.00" departLane="-874458737#0_0" departPos="5.10" departSpeed="0.00" departDelay="0.00" arrival="23144.00" arrivalLane="-125813719_0" arrivalPos="111.39" arrivalSpeed="6.86" duration="23143.00" routeLength="192890.76" waitingTime="4175.00" waitingCount="344" stopTime="0.00" timeLoss="9124.00" rerouteNo="2339" devices="tripinfo_1" vType="DEFAULT_VEHTYPE" speedFactor="0.94" vaporized=""/>
    <tripinfo id="90" depart="90.00" departLane="49713109_0" departPos="5.10" departSpeed="0.00" departDelay="0.00" arrival="23767.00" arrivalLane="-125813719_0" arrivalPos="111.39" arrivalSpeed="6.60" duration="23677.00" routeLength="188361.62" waitingTime="6571.00" waitingCount="308" stopTime="0.00" timeLoss="11491.40" rerouteNo="2129" devices="tripinfo_90" vType="DEFAULT_VEHTYPE" speedFactor="1.02" vaporized=""/>
    <tripinfo id="6" depart="6.00" departLane="-162154275#0_0" departPos="5.10" departSpeed="0.00" departDelay="0.00" arrival="29115.00" arrivalLane="-125813719_0" arrivalPos="111.39" arrivalSpeed="2.36" duration="29109.00" routeLength="240859.26" waitingTime="7939.00" waitingCount="365" stopTime="0.00" timeLoss="13905.98" rerouteNo="2693" devices="tripinfo_6" vType="DEFAULT_VEHTYPE" speedFactor="1.05" vaporized=""/>
    <tripinfo id="101" depart="23144.00" departLane="90746188#1_0" departPos="5.10" departSpeed="0.00" departDelay="23043.00" arrival="29442.00" arrivalLane="-125948402_0" arrivalPos="455.34" arrivalSpeed="12.56" duration="6298.00" routeLength="67647.83" waitingTime="382.00" waitingCount="77" stopTime="0.00" timeLoss="1823.43" rerouteNo="648" devices="tripinfo_101" vType="DEFAULT_VEHTYPE" speedFactor="0.96" vaporized=""/>
    <tripinfo id="46" depart="46.00" departLane="833559124_0" departPos="5.10" departSpeed="0.00" departDelay="0.00" arrival="40248.00" arrivalLane="-125948402_0" arrivalPos="455.34" arrivalSpeed="13.60" duration="40202.00" routeLength="368549.94" waitingTime="5230.00" waitingCount="609" stopTime="0.00" timeLoss="15018.78" rerouteNo="4871" devices="tripinfo_46" vType="DEFAULT_VEHTYPE" speedFactor="1.00" vaporized=""/>
    <tripinfo id="13" depart="13.00" departLane="-25562204#23_0" departPos="5.10" departSpeed="0.00" departDelay="0.00" arrival="42698.00" arrivalLane="-183715382_0" arrivalPos="174.83" arrivalSpeed="14.37" duration="42685.00" routeLength="397715.89" waitingTime="7645.00" waitingCount="628" stopTime="0.00" timeLoss="18796.31" rerouteNo="5225" devices="tripinfo_13" vType="DEFAULT_VEHTYPE" speedFactor="1.12" vaporized=""/>
    <tripinfo id="2" depart="2.00" departLane="49713116_0" departPos="5.10" departSpeed="0.00" departDelay="0.00" arrival="43533.00" arrivalLane="-125813719_0" arrivalPos="111.39" arrivalSpeed="7.18" duration="43531.00" routeLength="363249.87" waitingTime="11952.00" waitingCount="502" stopTime="0.00" timeLoss="20797.59" rerouteNo="3813" devices="tripinfo_2" vType="DEFAULT_VEHTYPE" speedFactor="1.01" vaporized=""/>
</tripinfos>
