<?xml version="1.0" encoding="UTF-8"?>

<!-- generated on 2023-11-23 15:48:40 by Eclipse SUMO GUI Version 1.18.0
<configuration xmlns:xsi="http://www.w3.org/2001/XMLSchema-instance" xsi:noNamespaceSchemaLocation="http://sumo.dlr.de/xsd/sumoConfiguration.xsd">

    <input>
        <net-file value="osm.net.xml.gz"/>
        <route-files value="osm.rou.xml"/>
        <additional-files value="osm.poly.xml.gz, stop.add.xml, reroute.add.xml"/>
    </input>

    <output>
        <tripinfo-output value="tripinfo.xml"/>
    </output>

    <time>
        <step-length value="1.00"/>
    </time>

    <processing>
        <ignore-route-errors value="true"/>
        <max-num-vehicles value="100"/>
    </processing>

    <routing>
        <device.rerouting.adaptation-steps value="18"/>
        <device.rerouting.adaptation-interval value="10"/>
    </routing>

    <report>
        <verbose value="true"/>
        <duration-log.statistics value="true"/>
        <no-step-log value="true"/>
    </report>

    <traci_server>
        <remote-port value="49260"/>
    </traci_server>

    <gui_only>
        <gui-settings-file value="osm.view.xml"/>
    </gui_only>

</configuration>
-->

<tripinfos xmlns:xsi="http://www.w3.org/2001/XMLSchema-instance" xsi:noNamespaceSchemaLocation="http://sumo.dlr.de/xsd/tripinfo_file.xsd">
    <tripinfo id="62" depart="68.00" departLane="-1009472075_0" departPos="5.10" departSpeed="0.00" departDelay="6.00" arrival="14837.00" arrivalLane="-125813719_0" arrivalPos="111.39" arrivalSpeed="4.51" duration="14769.00" routeLength="138538.26" waitingTime="2430.00" waitingCount="204" stopTime="0.00" timeLoss="6031.80" rerouteNo="1417" devices="tripinfo_62" vType="DEFAULT_VEHTYPE" speedFactor="1.02" vaporized=""/>
    <tripinfo id="77" depart="77.00" departLane="-290734563#2_0" departPos="5.10" departSpeed="0.00" departDelay="0.00" arrival="15945.00" arrivalLane="-125948402_0" arrivalPos="455.34" arrivalSpeed="13.26" duration="15868.00" routeLength="143854.20" waitingTime="2226.00" waitingCount="241" stopTime="0.00" timeLoss="5980.57" rerouteNo="1760" devices="tripinfo_77" vType="DEFAULT_VEHTYPE" speedFactor="0.98" vaporized=""/>
    <tripinfo id="66" depart="67.00" departLane="951261274#0_0" departPos="5.10" departSpeed="0.00" departDelay="1.00" arrival="16353.00" arrivalLane="-125948402_0" arrivalPos="455.34" arrivalSpeed="11.76" duration="16286.00" routeLength="156009.60" waitingTime="1177.00" waitingCount="228" stopTime="0.00" timeLoss="4926.77" rerouteNo="1774" devices="tripinfo_66" vType="DEFAULT_VEHTYPE" speedFactor="0.91" vaporized=""/>
    <tripinfo id="91" depart="91.00" departLane="999254364_0" departPos="5.10" departSpeed="0.00" departDelay="0.00" arrival="23332.00" arrivalLane="-125948402_0" arrivalPos="455.34" arrivalSpeed="12.19" duration="23241.00" routeLength="205793.96" waitingTime="3395.00" waitingCount="229" stopTime="0.00" timeLoss="8397.75" rerouteNo="2353" devices="tripinfo_91" vType="DEFAULT_VEHTYPE" speedFactor="0.89" vaporized=""/>
    <tripinfo id="18" depart="18.00" departLane="90746167#1_0" departPos="5.10" departSpeed="0.00" departDelay="0.00" arrival="25295.00" arrivalLane="-125813719_0" arrivalPos="111.39" arrivalSpeed="4.97" duration="25277.00" routeLength="180040.87" waitingTime="8256.00" waitingCount="290" stopTime="0.00" timeLoss="12621.49" rerouteNo="2100" devices="tripinfo_18" vType="DEFAULT_VEHTYPE" speedFactor="0.94" vaporized=""/>
    <tripinfo id="92" depart="92.00" departLane="125807797#3_0" departPos="5.10" departSpeed="0.00" departDelay="0.00" arrival="35117.00" arrivalLane="-125948402_0" arrivalPos="455.34" arrivalSpeed="10.52" duration="35025.00" routeLength="239209.54" waitingTime="10089.00" waitingCount="343" stopTime="0.00" timeLoss="15572.51" rerouteNo="2867" devices="tripinfo_92" vType="DEFAULT_VEHTYPE" speedFactor="0.83" vaporized=""/>
    <tripinfo id="3" depart="3.00" departLane="952097489#1_0" departPos="5.10" departSpeed="0.00" departDelay="0.00" arrival="35751.00" arrivalLane="-125813719_0" arrivalPos="111.39" arrivalSpeed="8.14" duration="35748.00" routeLength="323634.23" waitingTime="7449.00" waitingCount="511" stopTime="0.00" timeLoss="15865.19" rerouteNo="3786" devices="tripinfo_3" vType="DEFAULT_VEHTYPE" speedFactor="1.08" vaporized=""/>
    <tripinfo id="79" depart="79.00" departLane="-49713116_0" departPos="5.10" departSpeed="0.00" departDelay="0.00" arrival="47130.00" arrivalLane="-125813719_0" arrivalPos="111.39" arrivalSpeed="5.62" duration="47051.00" routeLength="451992.87" waitingTime="8257.00" waitingCount="568" stopTime="0.00" timeLoss="19531.51" rerouteNo="5143" devices="tripinfo_79" vType="DEFAULT_VEHTYPE" speedFactor="1.09" vaporized=""/>
    <tripinfo id="32" depart="32.00" departLane="90746176#1_0" departPos="5.10" departSpeed="0.00" departDelay="0.00" arrival="51291.00" arrivalLane="-125948402_0" arrivalPos="455.34" arrivalSpeed="13.74" duration="51259.00" routeLength="443730.02" waitingTime="10563.00" waitingCount="589" stopTime="0.00" timeLoss="21490.86" rerouteNo="5126" devices="tripinfo_32" vType="DEFAULT_VEHTYPE" speedFactor="1.01" vaporized=""/>
    <tripinfo id="45" depart="45.00" departLane="-25562213#1_0" departPos="5.10" departSpeed="0.00" departDelay="0.00" arrival="60199.00" arrivalLane="-125813719_0" arrivalPos="111.39" arrivalSpeed="7.71" duration="60154.00" routeLength="408647.63" waitingTime="22123.00" waitingCount="625" stopTime="0.00" timeLoss="33344.28" rerouteNo="4934" devices="tripinfo_45" vType="DEFAULT_VEHTYPE" speedFactor="1.09" vaporized=""/>
    <tripinfo id="36" depart="36.00" departLane="951261273_0" departPos="5.10" departSpeed="0.00" departDelay="0.00" arrival="64003.00" arrivalLane="-125948402_0" arrivalPos="455.34" arrivalSpeed="13.43" duration="63967.00" routeLength="471062.63" waitingTime="20188.00" waitingCount="711" stopTime="0.00" timeLoss="31900.75" rerouteNo="5374" devices="tripinfo_36" vType="DEFAULT_VEHTYPE" speedFactor="0.97" vaporized=""/>
    <tripinfo id="98" depart="98.00" departLane="25562205_0" departPos="5.10" departSpeed="0.00" departDelay="0.00" arrival="72273.00" arrivalLane="-125948402_0" arrivalPos="455.34" arrivalSpeed="14.56" duration="72175.00" routeLength="605002.14" waitingTime="19658.00" waitingCount="946" stopTime="0.00" timeLoss="36128.88" rerouteNo="7132" devices="tripinfo_98" vType="DEFAULT_VEHTYPE" speedFactor="1.12" vaporized=""/>
    <tripinfo id="84" depart="84.00" departLane="-38698804#1_0" departPos="5.10" departSpeed="0.00" departDelay="0.00" arrival="77585.00" arrivalLane="-125948402_0" arrivalPos="455.34" arrivalSpeed="15.74" duration="77501.00" routeLength="611142.93" waitingTime="24792.00" waitingCount="938" stopTime="0.00" timeLoss="41592.48" rerouteNo="7743" devices="tripinfo_84" vType="DEFAULT_VEHTYPE" speedFactor="1.15" vaporized=""/>
    <tripinfo id="22" depart="22.00" departLane="-25562204#15_0" departPos="5.10" departSpeed="0.00" departDelay="0.00" arrival="78486.00" arrivalLane="-125948402_0" arrivalPos="455.34" arrivalSpeed="13.37" duration="78464.00" routeLength="661033.01" waitingTime="18840.00" waitingCount="1024" stopTime="0.00" timeLoss="34637.08" rerouteNo="7712" devices="tripinfo_22" vType="DEFAULT_VEHTYPE" speedFactor="0.97" vaporized=""/>
    <tripinfo id="1" depart="1.00" departLane="-874458737#0_0" departPos="5.10" departSpeed="0.00" departDelay="0.00" arrival="78993.00" arrivalLane="-125813719_0" arrivalPos="111.39" arrivalSpeed="8.55" duration="78992.00" routeLength="561755.20" waitingTime="25882.00" waitingCount="902" stopTime="0.00" timeLoss="39283.25" rerouteNo="6281" devices="tripinfo_1" vType="DEFAULT_VEHTYPE" speedFactor="0.94" vaporized=""/>
    <tripinfo id="4" depart="4.00" departLane="125814597_0" departPos="5.10" departSpeed="0.00" departDelay="0.00" arrival="81434.00" arrivalLane="-125813719_0" arrivalPos="111.39" arrivalSpeed="7.11" duration="81430.00" routeLength="542558.61" waitingTime="31025.00" waitingCount="925" stopTime="0.00" timeLoss="45858.20" rerouteNo="6501" devices="tripinfo_4" vType="DEFAULT_VEHTYPE" speedFactor="1.03" vaporized=""/>
    <tripinfo id="9" depart="9.00" departLane="848718052_0" departPos="5.10" departSpeed="0.00" departDelay="0.00" arrival="82284.00" arrivalLane="-125813719_0" arrivalPos="111.39" arrivalSpeed="9.54" duration="82275.00" routeLength="479267.00" waitingTime="32885.00" waitingCount="750" stopTime="0.00" timeLoss="44635.56" rerouteNo="5581" devices="tripinfo_9" vType="DEFAULT_VEHTYPE" speedFactor="0.86" vaporized=""/>
    <tripinfo id="0" depart="0.00" departLane="38606815_0" departPos="5.10" departSpeed="0.00" departDelay="0.00" arrival="82286.00" arrivalLane="-125813719_0" arrivalPos="111.39" arrivalSpeed="9.83" duration="82286.00" routeLength="612732.27" waitingTime="27510.00" waitingCount="882" stopTime="0.00" timeLoss="43601.02" rerouteNo="7740" devices="tripinfo_0" vType="DEFAULT_VEHTYPE" speedFactor="1.06" vaporized=""/>
    <tripinfo id="63" depart="63.00" departLane="-125947334#2_0" departPos="5.10" departSpeed="0.00" departDelay="0.00" arrival="83185.00" arrivalLane="-125948402_0" arrivalPos="455.34" arrivalSpeed="13.11" duration="83122.00" routeLength="669456.89" waitingTime="21008.00" waitingCount="903" stopTime="0.00" timeLoss="36906.75" rerouteNo="7732" devices="tripinfo_63" vType="DEFAULT_VEHTYPE" speedFactor="0.99" vaporized=""/>
    <tripinfo id="26" depart="26.00" departLane="-848718052_0" departPos="5.10" departSpeed="0.00" departDelay="0.00" arrival="92904.00" arrivalLane="-125948402_0" arrivalPos="455.34" arrivalSpeed="12.22" duration="92878.00" routeLength="584327.39" waitingTime="38061.00" waitingCount="892" stopTime="0.00" timeLoss="52024.85" rerouteNo="6456" devices="tripinfo_26" vType="DEFAULT_VEHTYPE" speedFactor="0.92" vaporized=""/>
</tripinfos>
