<?xml version="1.0" encoding="UTF-8"?>

<!-- generated on 2023-10-20 13:43:21 by Eclipse SUMO GUI Version 1.18.0
<configuration xmlns:xsi="http://www.w3.org/2001/XMLSchema-instance" xsi:noNamespaceSchemaLocation="http://sumo.dlr.de/xsd/sumoConfiguration.xsd">

    <input>
        <net-file value="osm.net.xml.gz"/>
        <route-files value="osm.rou.xml"/>
        <additional-files value="osm.poly.xml.gz, stop.add.xml, reroute.add.xml"/>
    </input>

    <output>
        <tripinfo-output value="tripinfo.xml"/>
    </output>

    <time>
        <step-length value="1.00"/>
    </time>

    <processing>
        <ignore-route-errors value="true"/>
        <max-num-vehicles value="100"/>
    </processing>

    <routing>
        <device.rerouting.adaptation-steps value="18"/>
        <device.rerouting.adaptation-interval value="10"/>
    </routing>

    <report>
        <verbose value="true"/>
        <duration-log.statistics value="true"/>
        <no-step-log value="true"/>
    </report>

    <traci_server>
        <remote-port value="52589"/>
    </traci_server>

    <gui_only>
        <gui-settings-file value="osm.view.xml"/>
    </gui_only>

</configuration>
-->

<tripinfos xmlns:xsi="http://www.w3.org/2001/XMLSchema-instance" xsi:noNamespaceSchemaLocation="http://sumo.dlr.de/xsd/tripinfo_file.xsd">
    <tripinfo id="82" depart="82.00" departLane="91022458#2_0" departPos="5.10" departSpeed="0.00" departDelay="0.00" arrival="9903.00" arrivalLane="-125813719_0" arrivalPos="111.39" arrivalSpeed="5.18" duration="9821.00" routeLength="87659.29" waitingTime="1886.00" waitingCount="147" stopTime="0.00" timeLoss="3979.85" rerouteNo="1055" devices="tripinfo_82" vType="DEFAULT_VEHTYPE" speedFactor="1.02" vaporized=""/>
    <tripinfo id="85" depart="85.00" departLane="968410230_0" departPos="5.10" departSpeed="0.00" departDelay="0.00" arrival="13590.00" arrivalLane="-125948402_0" arrivalPos="455.34" arrivalSpeed="13.35" duration="13505.00" routeLength="130052.98" waitingTime="1607.00" waitingCount="207" stopTime="0.00" timeLoss="4773.28" rerouteNo="1493" devices="tripinfo_85" vType="DEFAULT_VEHTYPE" speedFactor="0.98" vaporized=""/>
    <tripinfo id="55" depart="55.00" departLane="951259665_0" departPos="5.10" departSpeed="0.00" departDelay="0.00" arrival="15653.00" arrivalLane="-125948402_0" arrivalPos="455.34" arrivalSpeed="13.27" duration="15598.00" routeLength="151351.56" waitingTime="2408.00" waitingCount="205" stopTime="0.00" timeLoss="6134.63" rerouteNo="1705" devices="tripinfo_55" vType="DEFAULT_VEHTYPE" speedFactor="1.00" vaporized=""/>
    <tripinfo id="46" depart="46.00" departLane="833559124_0" departPos="5.10" departSpeed="0.00" departDelay="0.00" arrival="17331.00" arrivalLane="-125813719_0" arrivalPos="111.39" arrivalSpeed="13.03" duration="17285.00" routeLength="172670.88" waitingTime="1627.00" waitingCount="241" stopTime="0.00" timeLoss="5783.79" rerouteNo="1965" devices="tripinfo_46" vType="DEFAULT_VEHTYPE" speedFactor="1.00" vaporized=""/>
    <tripinfo id="64" depart="64.00" departLane="951261274#0_0" departPos="5.10" departSpeed="0.00" departDelay="0.00" arrival="20902.00" arrivalLane="-125948402_0" arrivalPos="455.34" arrivalSpeed="11.74" duration="20838.00" routeLength="202870.27" waitingTime="1853.00" waitingCount="240" stopTime="0.00" timeLoss="6710.25" rerouteNo="2449" devices="tripinfo_64" vType="DEFAULT_VEHTYPE" speedFactor="0.94" vaporized=""/>
    <tripinfo id="57" depart="57.00" departLane="958823492_0" departPos="5.10" departSpeed="0.00" departDelay="0.00" arrival="22457.00" arrivalLane="-125813719_0" arrivalPos="111.39" arrivalSpeed="15.82" duration="22400.00" routeLength="251852.42" waitingTime="1976.00" waitingCount="274" stopTime="0.00" timeLoss="8297.74" rerouteNo="2880" devices="tripinfo_57" vType="DEFAULT_VEHTYPE" speedFactor="1.14" vaporized=""/>
    <tripinfo id="42" depart="44.00" departLane="125807797#1_0" departPos="5.10" departSpeed="0.00" departDelay="2.00" arrival="24758.00" arrivalLane="-125948402_0" arrivalPos="455.34" arrivalSpeed="14.70" duration="24714.00" routeLength="255179.68" waitingTime="2530.00" waitingCount="368" stopTime="0.00" timeLoss="9109.50" rerouteNo="2959" devices="tripinfo_42" vType="DEFAULT_VEHTYPE" speedFactor="1.09" vaporized=""/>
    <tripinfo id="12" depart="12.00" departLane="972943389_0" departPos="5.10" departSpeed="0.00" departDelay="0.00" arrival="45068.00" arrivalLane="-183715382_0" arrivalPos="174.83" arrivalSpeed="13.35" duration="45056.00" routeLength="445155.34" waitingTime="5572.00" waitingCount="626" stopTime="0.00" timeLoss="16945.42" rerouteNo="5640" devices="tripinfo_12" vType="DEFAULT_VEHTYPE" speedFactor="1.05" vaporized=""/>
    <tripinfo id="100" depart="13590.00" departLane="987501966_0" departPos="5.10" departSpeed="0.00" departDelay="13490.00" arrival="45928.00" arrivalLane="-125813719_0" arrivalPos="111.39" arrivalSpeed="5.83" duration="32338.00" routeLength="305512.54" waitingTime="5602.00" waitingCount="472" stopTime="0.00" timeLoss="13292.98" rerouteNo="3547" devices="tripinfo_100" vType="DEFAULT_VEHTYPE" speedFactor="1.06" vaporized=""/>
</tripinfos>
