<?xml version="1.0" encoding="UTF-8"?>

<!-- generated on 2023-10-10 19:40:40 by Eclipse SUMO GUI Version 1.18.0
<configuration xmlns:xsi="http://www.w3.org/2001/XMLSchema-instance" xsi:noNamespaceSchemaLocation="http://sumo.dlr.de/xsd/sumoConfiguration.xsd">

    <input>
        <net-file value="osm.net.xml.gz"/>
        <route-files value="osm.rou.xml"/>
        <additional-files value="osm.poly.xml.gz, stop.add.xml, reroute.add.xml"/>
    </input>

    <output>
        <tripinfo-output value="tripinfo.xml"/>
    </output>

    <time>
        <step-length value="1.00"/>
    </time>

    <processing>
        <ignore-route-errors value="true"/>
        <max-num-vehicles value="100"/>
    </processing>

    <routing>
        <device.rerouting.adaptation-steps value="18"/>
        <device.rerouting.adaptation-interval value="10"/>
    </routing>

    <report>
        <verbose value="true"/>
        <duration-log.statistics value="true"/>
        <no-step-log value="true"/>
    </report>

    <traci_server>
        <remote-port value="63072"/>
    </traci_server>

    <gui_only>
        <gui-settings-file value="osm.view.xml"/>
    </gui_only>

</configuration>
-->

<tripinfos xmlns:xsi="http://www.w3.org/2001/XMLSchema-instance" xsi:noNamespaceSchemaLocation="http://sumo.dlr.de/xsd/tripinfo_file.xsd">
    <tripinfo id="25" depart="26.00" departLane="-972943389_0" departPos="5.10" departSpeed="0.00" departDelay="1.00" arrival="10196.00" arrivalLane="-125813719_0" arrivalPos="111.39" arrivalSpeed="12.03" duration="10170.00" routeLength="87966.42" waitingTime="1167.00" waitingCount="155" stopTime="0.00" timeLoss="3400.70" rerouteNo="1236" devices="tripinfo_25" vType="DEFAULT_VEHTYPE" speedFactor="0.87" vaporized=""/>
    <tripinfo id="21" depart="21.00" departLane="-49713114_0" departPos="5.10" departSpeed="0.00" departDelay="0.00" arrival="10996.00" arrivalLane="-125948402_0" arrivalPos="455.34" arrivalSpeed="13.15" duration="10975.00" routeLength="109548.76" waitingTime="934.00" waitingCount="153" stopTime="0.00" timeLoss="3513.66" rerouteNo="1353" devices="tripinfo_21" vType="DEFAULT_VEHTYPE" speedFactor="1.01" vaporized=""/>
    <tripinfo id="36" depart="36.00" departLane="951261273_0" departPos="5.10" departSpeed="0.00" departDelay="0.00" arrival="12641.00" arrivalLane="-183715382_0" arrivalPos="174.83" arrivalSpeed="13.24" duration="12605.00" routeLength="118164.06" waitingTime="1720.00" waitingCount="163" stopTime="0.00" timeLoss="4707.77" rerouteNo="1370" devices="tripinfo_36" vType="DEFAULT_VEHTYPE" speedFactor="0.97" vaporized=""/>
    <tripinfo id="73" depart="73.00" departLane="25562204#26_0" departPos="5.10" departSpeed="0.00" departDelay="0.00" arrival="12885.00" arrivalLane="-125948402_0" arrivalPos="455.34" arrivalSpeed="13.53" duration="12812.00" routeLength="131834.77" waitingTime="1381.00" waitingCount="181" stopTime="0.00" timeLoss="4762.70" rerouteNo="1382" devices="tripinfo_73" vType="DEFAULT_VEHTYPE" speedFactor="1.06" vaporized=""/>
    <tripinfo id="48" depart="48.00" departLane="999254379#1_0" departPos="5.10" departSpeed="0.00" departDelay="0.00" arrival="15338.00" arrivalLane="-183715382_0" arrivalPos="174.83" arrivalSpeed="11.39" duration="15290.00" routeLength="138753.67" waitingTime="1492.00" waitingCount="190" stopTime="0.00" timeLoss="4515.48" rerouteNo="1595" devices="tripinfo_48" vType="DEFAULT_VEHTYPE" speedFactor="0.88" vaporized=""/>
    <tripinfo id="78" depart="78.00" departLane="-958823495#0_0" departPos="0.20" departSpeed="0.00" departDelay="0.00" arrival="18154.00" arrivalLane="-183715382_0" arrivalPos="174.83" arrivalSpeed="12.75" duration="18076.00" routeLength="178407.57" waitingTime="1619.00" waitingCount="331" stopTime="0.00" timeLoss="6099.14" rerouteNo="2312" devices="tripinfo_78" vType="DEFAULT_VEHTYPE" speedFactor="1.01" vaporized=""/>
    <tripinfo id="75" depart="75.00" departLane="999254379#0_0" departPos="5.10" departSpeed="0.00" departDelay="0.00" arrival="20617.00" arrivalLane="-125948402_0" arrivalPos="455.34" arrivalSpeed="13.63" duration="20542.00" routeLength="202553.98" waitingTime="2304.00" waitingCount="276" stopTime="0.00" timeLoss="7134.51" rerouteNo="2227" devices="tripinfo_75" vType="DEFAULT_VEHTYPE" speedFactor="0.98" vaporized=""/>
    <tripinfo id="62" depart="68.00" departLane="-1009472075_0" departPos="5.10" departSpeed="0.00" departDelay="6.00" arrival="29665.00" arrivalLane="-125813719_0" arrivalPos="111.39" arrivalSpeed="5.67" duration="29597.00" routeLength="239160.50" waitingTime="8757.00" waitingCount="330" stopTime="0.00" timeLoss="14680.24" rerouteNo="2435" devices="tripinfo_62" vType="DEFAULT_VEHTYPE" speedFactor="1.02" vaporized=""/>
    <tripinfo id="20" depart="20.00" departLane="38697612#1_0" departPos="5.10" departSpeed="0.00" departDelay="0.00" arrival="32934.00" arrivalLane="-183715382_0" arrivalPos="174.83" arrivalSpeed="13.94" duration="32914.00" routeLength="278610.24" waitingTime="8495.00" waitingCount="456" stopTime="0.00" timeLoss="15322.23" rerouteNo="3049" devices="tripinfo_20" vType="DEFAULT_VEHTYPE" speedFactor="1.02" vaporized=""/>
    <tripinfo id="107" depart="29665.00" departLane="972943389_0" departPos="5.10" departSpeed="0.00" departDelay="29558.00" arrival="39168.00" arrivalLane="-125813719_0" arrivalPos="111.39" arrivalSpeed="5.77" duration="9503.00" routeLength="25554.05" waitingTime="6819.00" waitingCount="67" stopTime="0.00" timeLoss="7665.13" rerouteNo="328" devices="tripinfo_107" vType="DEFAULT_VEHTYPE" speedFactor="1.03" vaporized=""/>
    <tripinfo id="2" depart="2.00" departLane="49713116_0" departPos="5.10" departSpeed="0.00" departDelay="0.00" arrival="39191.00" arrivalLane="-125948402_0" arrivalPos="455.34" arrivalSpeed="13.63" duration="39189.00" routeLength="392642.13" waitingTime="4994.00" waitingCount="501" stopTime="0.00" timeLoss="14360.42" rerouteNo="4353" devices="tripinfo_2" vType="DEFAULT_VEHTYPE" speedFactor="1.01" vaporized=""/>
    <tripinfo id="55" depart="55.00" departLane="951259665_0" departPos="5.10" departSpeed="0.00" departDelay="0.00" arrival="41323.00" arrivalLane="-125813719_0" arrivalPos="111.39" arrivalSpeed="6.23" duration="41268.00" routeLength="324979.86" waitingTime="11226.00" waitingCount="481" stopTime="0.00" timeLoss="19481.83" rerouteNo="3969" devices="tripinfo_55" vType="DEFAULT_VEHTYPE" speedFactor="1.00" vaporized=""/>
    <tripinfo id="51" depart="51.00" departLane="38691656#6_0" departPos="5.10" departSpeed="0.00" departDelay="0.00" arrival="53078.00" arrivalLane="-125813719_0" arrivalPos="111.39" arrivalSpeed="4.45" duration="53027.00" routeLength="383770.19" waitingTime="21133.00" waitingCount="555" stopTime="0.00" timeLoss="30834.87" rerouteNo="4487" devices="tripinfo_51" vType="DEFAULT_VEHTYPE" speedFactor="1.17" vaporized=""/>
    <tripinfo id="76" depart="76.00" departLane="179213203_0" departPos="5.10" departSpeed="0.00" departDelay="0.00" arrival="55374.00" arrivalLane="-183715382_0" arrivalPos="174.83" arrivalSpeed="13.61" duration="55298.00" routeLength="458206.85" waitingTime="14503.00" waitingCount="741" stopTime="0.00" timeLoss="26272.98" rerouteNo="5537" devices="tripinfo_76" vType="DEFAULT_VEHTYPE" speedFactor="1.03" vaporized=""/>
    <tripinfo id="38" depart="38.00" departLane="958823494#0_0" departPos="0.20" departSpeed="0.00" departDelay="0.00" arrival="60141.00" arrivalLane="-125948402_0" arrivalPos="455.34" arrivalSpeed="14.93" duration="60103.00" routeLength="432769.27" waitingTime="22123.00" waitingCount="642" stopTime="0.00" timeLoss="33786.96" rerouteNo="5075" devices="tripinfo_38" vType="DEFAULT_VEHTYPE" speedFactor="1.10" vaporized=""/>
    <tripinfo id="57" depart="57.00" departLane="958823492_0" departPos="5.10" departSpeed="0.00" departDelay="0.00" arrival="61535.00" arrivalLane="-125813719_0" arrivalPos="111.39" arrivalSpeed="1.71" duration="61478.00" routeLength="461119.38" waitingTime="22442.00" waitingCount="772" stopTime="0.00" timeLoss="34704.24" rerouteNo="4936" devices="tripinfo_57" vType="DEFAULT_VEHTYPE" speedFactor="1.14" vaporized=""/>
    <tripinfo id="30" depart="30.00" departLane="999254376#0_0" departPos="5.10" departSpeed="0.00" departDelay="0.00" arrival="65553.00" arrivalLane="-125813719_0" arrivalPos="111.39" arrivalSpeed="5.29" duration="65523.00" routeLength="565411.28" waitingTime="18398.00" waitingCount="831" stopTime="0.00" timeLoss="33832.48" rerouteNo="6731" devices="tripinfo_30" vType="DEFAULT_VEHTYPE" speedFactor="1.18" vaporized=""/>
    <tripinfo id="108" depart="32934.00" departLane="25562213#1_0" departPos="5.10" departSpeed="0.00" departDelay="32826.00" arrival="68772.00" arrivalLane="-125948402_0" arrivalPos="455.34" arrivalSpeed="13.62" duration="35838.00" routeLength="367080.48" waitingTime="3797.00" waitingCount="475" stopTime="0.00" timeLoss="12922.39" rerouteNo="4139" devices="tripinfo_108" vType="DEFAULT_VEHTYPE" speedFactor="1.06" vaporized=""/>
    <tripinfo id="24" depart="24.00" departLane="38606812#3_0" departPos="5.10" departSpeed="0.00" departDelay="0.00" arrival="69524.00" arrivalLane="-183715382_0" arrivalPos="174.83" arrivalSpeed="11.00" duration="69500.00" routeLength="497457.98" waitingTime="17201.00" waitingCount="632" stopTime="0.00" timeLoss="28752.01" rerouteNo="5962" devices="tripinfo_24" vType="DEFAULT_VEHTYPE" speedFactor="0.83" vaporized=""/>
    <tripinfo id="40" depart="40.00" departLane="274699798_0" departPos="5.10" departSpeed="0.00" departDelay="0.00" arrival="71308.00" arrivalLane="-125813719_0" arrivalPos="111.39" arrivalSpeed="6.68" duration="71268.00" routeLength="584170.26" waitingTime="18662.00" waitingCount="945" stopTime="0.00" timeLoss="33380.51" rerouteNo="7157" devices="tripinfo_40" vType="DEFAULT_VEHTYPE" speedFactor="1.03" vaporized=""/>
    <tripinfo id="96" depart="97.00" departLane="-655740449#3_0" departPos="5.10" departSpeed="0.00" departDelay="1.00" arrival="73768.00" arrivalLane="-125813719_0" arrivalPos="111.39" arrivalSpeed="6.38" duration="73671.00" routeLength="582989.63" waitingTime="20051.00" waitingCount="963" stopTime="0.00" timeLoss="34542.39" rerouteNo="6646" devices="tripinfo_96" vType="DEFAULT_VEHTYPE" speedFactor="1.01" vaporized=""/>
    <tripinfo id="77" depart="77.00" departLane="-290734563#2_0" departPos="5.10" departSpeed="0.00" departDelay="0.00" arrival="75051.00" arrivalLane="-183715382_0" arrivalPos="174.83" arrivalSpeed="13.13" duration="74974.00" routeLength="706435.33" waitingTime="10753.00" waitingCount="863" stopTime="0.00" timeLoss="27885.80" rerouteNo="8303" devices="tripinfo_77" vType="DEFAULT_VEHTYPE" speedFactor="0.98" vaporized=""/>
    <tripinfo id="118" depart="69524.00" departLane="952091982_0" departPos="5.10" departSpeed="0.00" departDelay="69406.00" arrival="75615.00" arrivalLane="-183715382_0" arrivalPos="174.83" arrivalSpeed="13.40" duration="6091.00" routeLength="60172.75" waitingTime="602.00" waitingCount="73" stopTime="0.00" timeLoss="2064.75" rerouteNo="735" devices="tripinfo_118" vType="DEFAULT_VEHTYPE" speedFactor="0.99" vaporized=""/>
    <tripinfo id="63" depart="63.00" departLane="-125947334#2_0" departPos="5.10" departSpeed="0.00" departDelay="0.00" arrival="77711.00" arrivalLane="-125813719_0" arrivalPos="111.39" arrivalSpeed="4.48" duration="77648.00" routeLength="543362.89" waitingTime="26712.00" waitingCount="865" stopTime="0.00" timeLoss="40701.99" rerouteNo="6605" devices="tripinfo_63" vType="DEFAULT_VEHTYPE" speedFactor="0.99" vaporized=""/>
    <tripinfo id="122" depart="75615.00" departLane="-38691675#2_0" departPos="5.10" departSpeed="0.00" departDelay="75493.00" arrival="81896.00" arrivalLane="-183715382_0" arrivalPos="174.83" arrivalSpeed="13.99" duration="6281.00" routeLength="57672.29" waitingTime="865.00" waitingCount="85" stopTime="0.00" timeLoss="2427.92" rerouteNo="720" devices="tripinfo_122" vType="DEFAULT_VEHTYPE" speedFactor="1.03" vaporized=""/>
    <tripinfo id="82" depart="82.00" departLane="91022458#2_0" departPos="5.10" departSpeed="0.00" departDelay="0.00" arrival="82403.00" arrivalLane="-125813719_0" arrivalPos="111.39" arrivalSpeed="11.27" duration="82321.00" routeLength="695414.28" waitingTime="20872.00" waitingCount="943" stopTime="0.00" timeLoss="37300.21" rerouteNo="7985" devices="tripinfo_82" vType="DEFAULT_VEHTYPE" speedFactor="1.02" vaporized=""/>
    <tripinfo id="104" depart="12885.00" departLane="-987501982_0" departPos="5.10" departSpeed="0.00" departDelay="12781.00" arrival="84059.00" arrivalLane="-125948402_0" arrivalPos="455.34" arrivalSpeed="12.17" duration="71174.00" routeLength="609503.65" waitingTime="11010.00" waitingCount="782" stopTime="0.00" timeLoss="25345.55" rerouteNo="7310" devices="tripinfo_104" vType="DEFAULT_VEHTYPE" speedFactor="0.89" vaporized=""/>
    <tripinfo id="34" depart="34.00" departLane="-91022458#2_0" departPos="5.10" departSpeed="0.00" departDelay="0.00" arrival="95129.00" arrivalLane="-183715382_0" arrivalPos="174.83" arrivalSpeed="12.95" duration="95095.00" routeLength="655336.77" waitingTime="32827.00" waitingCount="1086" stopTime="0.00" timeLoss="49669.61" rerouteNo="7766" devices="tripinfo_34" vType="DEFAULT_VEHTYPE" speedFactor="0.99" vaporized=""/>
    <tripinfo id="110" depart="41323.00" departLane="987501966_0" departPos="5.10" departSpeed="0.00" departDelay="41213.00" arrival="95846.00" arrivalLane="-125813719_0" arrivalPos="111.39" arrivalSpeed="5.34" duration="54523.00" routeLength="410154.59" waitingTime="14311.00" waitingCount="537" stopTime="0.00" timeLoss="23755.86" rerouteNo="4460" devices="tripinfo_110" vType="DEFAULT_VEHTYPE" speedFactor="0.93" vaporized=""/>
</tripinfos>
