<?xml version="1.0" encoding="UTF-8"?>

<!-- generated on 2023-11-05 15:43:51 by Eclipse SUMO GUI Version 1.18.0
<configuration xmlns:xsi="http://www.w3.org/2001/XMLSchema-instance" xsi:noNamespaceSchemaLocation="http://sumo.dlr.de/xsd/sumoConfiguration.xsd">

    <input>
        <net-file value="osm.net.xml.gz"/>
        <route-files value="osm.rou.xml"/>
        <additional-files value="osm.poly.xml.gz, stop.add.xml, reroute.add.xml"/>
    </input>

    <output>
        <tripinfo-output value="tripinfo.xml"/>
    </output>

    <time>
        <step-length value="1.00"/>
    </time>

    <processing>
        <ignore-route-errors value="true"/>
        <max-num-vehicles value="100"/>
    </processing>

    <routing>
        <device.rerouting.adaptation-steps value="18"/>
        <device.rerouting.adaptation-interval value="10"/>
    </routing>

    <report>
        <verbose value="true"/>
        <duration-log.statistics value="true"/>
        <no-step-log value="true"/>
    </report>

    <traci_server>
        <remote-port value="53379"/>
    </traci_server>

    <gui_only>
        <gui-settings-file value="osm.view.xml"/>
    </gui_only>

</configuration>
-->

<tripinfos xmlns:xsi="http://www.w3.org/2001/XMLSchema-instance" xsi:noNamespaceSchemaLocation="http://sumo.dlr.de/xsd/tripinfo_file.xsd">
    <tripinfo id="63" depart="63.00" departLane="-125947334#2_0" departPos="5.10" departSpeed="0.00" departDelay="0.00" arrival="15684.00" arrivalLane="-125813719_0" arrivalPos="111.39" arrivalSpeed="12.73" duration="15621.00" routeLength="154967.22" waitingTime="1812.00" waitingCount="218" stopTime="0.00" timeLoss="5497.19" rerouteNo="1653" devices="tripinfo_63" vType="DEFAULT_VEHTYPE" speedFactor="0.99" vaporized=""/>
    <tripinfo id="19" depart="19.00" departLane="91022458#3_0" departPos="5.10" departSpeed="0.00" departDelay="0.00" arrival="22394.00" arrivalLane="-125948402_0" arrivalPos="455.34" arrivalSpeed="15.90" duration="22375.00" routeLength="231353.89" waitingTime="2696.00" waitingCount="333" stopTime="0.00" timeLoss="9187.11" rerouteNo="2710" devices="tripinfo_19" vType="DEFAULT_VEHTYPE" speedFactor="1.16" vaporized=""/>
    <tripinfo id="61" depart="61.00" departLane="797744598#1_0" departPos="5.10" departSpeed="0.00" departDelay="0.00" arrival="30240.00" arrivalLane="-125813719_0" arrivalPos="111.39" arrivalSpeed="4.97" duration="30179.00" routeLength="217929.39" waitingTime="10770.00" waitingCount="414" stopTime="0.00" timeLoss="16851.90" rerouteNo="2497" devices="tripinfo_61" vType="DEFAULT_VEHTYPE" speedFactor="1.12" vaporized=""/>
    <tripinfo id="10" depart="10.00" departLane="841705338_0" departPos="5.10" departSpeed="0.00" departDelay="0.00" arrival="35332.00" arrivalLane="-125813719_0" arrivalPos="111.39" arrivalSpeed="4.35" duration="35322.00" routeLength="299412.94" waitingTime="9111.00" waitingCount="479" stopTime="0.00" timeLoss="17037.29" rerouteNo="3532" devices="tripinfo_10" vType="DEFAULT_VEHTYPE" speedFactor="1.09" vaporized=""/>
    <tripinfo id="59" depart="59.00" departLane="38606683_0" departPos="5.10" departSpeed="0.00" departDelay="0.00" arrival="43660.00" arrivalLane="-125948402_0" arrivalPos="455.34" arrivalSpeed="12.65" duration="43601.00" routeLength="276113.29" waitingTime="17390.00" waitingCount="456" stopTime="0.00" timeLoss="24493.42" rerouteNo="3405" devices="tripinfo_59" vType="DEFAULT_VEHTYPE" speedFactor="0.97" vaporized=""/>
    <tripinfo id="20" depart="20.00" departLane="38697612#1_0" departPos="5.10" departSpeed="0.00" departDelay="0.00" arrival="50482.00" arrivalLane="-125813719_0" arrivalPos="111.39" arrivalSpeed="5.55" duration="50462.00" routeLength="430249.49" waitingTime="12574.00" waitingCount="700" stopTime="0.00" timeLoss="23082.65" rerouteNo="4783" devices="tripinfo_20" vType="DEFAULT_VEHTYPE" speedFactor="1.02" vaporized=""/>
    <tripinfo id="25" depart="26.00" departLane="-972943389_0" departPos="5.10" departSpeed="0.00" departDelay="1.00" arrival="57303.00" arrivalLane="-125813719_0" arrivalPos="111.39" arrivalSpeed="6.58" duration="57277.00" routeLength="393963.72" waitingTime="16704.00" waitingCount="538" stopTime="0.00" timeLoss="26345.94" rerouteNo="5052" devices="tripinfo_25" vType="DEFAULT_VEHTYPE" speedFactor="0.87" vaporized=""/>
    <tripinfo id="21" depart="21.00" departLane="-49713114_0" departPos="5.10" departSpeed="0.00" departDelay="0.00" arrival="64615.00" arrivalLane="-125948402_0" arrivalPos="455.34" arrivalSpeed="12.77" duration="64594.00" routeLength="515554.27" waitingTime="16746.00" waitingCount="785" stopTime="0.00" timeLoss="29520.54" rerouteNo="6117" devices="tripinfo_21" vType="DEFAULT_VEHTYPE" speedFactor="1.01" vaporized=""/>
    <tripinfo id="37" depart="37.00" departLane="38655601#0_0" departPos="5.10" departSpeed="0.00" departDelay="0.00" arrival="73086.00" arrivalLane="-125813719_0" arrivalPos="111.39" arrivalSpeed="6.67" duration="73049.00" routeLength="476440.32" waitingTime="31909.00" waitingCount="838" stopTime="0.00" timeLoss="45897.93" rerouteNo="5590" devices="tripinfo_37" vType="DEFAULT_VEHTYPE" speedFactor="1.18" vaporized=""/>
    <tripinfo id="102" depart="30240.00" departLane="25562201#1_0" departPos="5.10" departSpeed="0.00" departDelay="30138.00" arrival="73394.00" arrivalLane="-125813719_0" arrivalPos="111.39" arrivalSpeed="5.00" duration="43154.00" routeLength="319090.51" waitingTime="12976.00" waitingCount="406" stopTime="0.00" timeLoss="20851.73" rerouteNo="3937" devices="tripinfo_102" vType="DEFAULT_VEHTYPE" speedFactor="0.97" vaporized=""/>
    <tripinfo id="27" depart="27.00" departLane="38606931_0" departPos="5.10" departSpeed="0.00" departDelay="0.00" arrival="74713.00" arrivalLane="-125948402_0" arrivalPos="455.34" arrivalSpeed="12.25" duration="74686.00" routeLength="591170.55" waitingTime="18546.00" waitingCount="803" stopTime="0.00" timeLoss="32825.84" rerouteNo="6930" devices="tripinfo_27" vType="DEFAULT_VEHTYPE" speedFactor="0.95" vaporized=""/>
    <tripinfo id="29" depart="29.00" departLane="-38606765_0" departPos="5.10" departSpeed="0.00" departDelay="0.00" arrival="78455.00" arrivalLane="-125813719_0" arrivalPos="111.39" arrivalSpeed="7.17" duration="78426.00" routeLength="652356.41" waitingTime="17175.00" waitingCount="921" stopTime="0.00" timeLoss="32704.94" rerouteNo="7211" devices="tripinfo_29" vType="DEFAULT_VEHTYPE" speedFactor="0.93" vaporized=""/>
    <tripinfo id="23" depart="23.00" departLane="-25562204#5_0" departPos="5.10" departSpeed="0.00" departDelay="0.00" arrival="94774.00" arrivalLane="-125813719_0" arrivalPos="111.39" arrivalSpeed="5.48" duration="94751.00" routeLength="819743.23" waitingTime="14143.00" waitingCount="1119" stopTime="0.00" timeLoss="33351.69" rerouteNo="9396" devices="tripinfo_23" vType="DEFAULT_VEHTYPE" speedFactor="0.89" vaporized=""/>
</tripinfos>
