<?xml version="1.0" encoding="UTF-8"?>

<!-- generated on 2023-10-18 19:29:47 by Eclipse SUMO GUI Version 1.18.0
<configuration xmlns:xsi="http://www.w3.org/2001/XMLSchema-instance" xsi:noNamespaceSchemaLocation="http://sumo.dlr.de/xsd/sumoConfiguration.xsd">

    <input>
        <net-file value="osm.net.xml.gz"/>
        <route-files value="osm.rou.xml"/>
        <additional-files value="osm.poly.xml.gz, stop.add.xml, reroute.add.xml"/>
    </input>

    <output>
        <tripinfo-output value="tripinfo.xml"/>
    </output>

    <time>
        <step-length value="1.00"/>
    </time>

    <processing>
        <ignore-route-errors value="true"/>
        <max-num-vehicles value="100"/>
    </processing>

    <routing>
        <device.rerouting.adaptation-steps value="18"/>
        <device.rerouting.adaptation-interval value="10"/>
    </routing>

    <report>
        <verbose value="true"/>
        <duration-log.statistics value="true"/>
        <no-step-log value="true"/>
    </report>

    <traci_server>
        <remote-port value="57260"/>
    </traci_server>

    <gui_only>
        <gui-settings-file value="osm.view.xml"/>
    </gui_only>

</configuration>
-->

<tripinfos xmlns:xsi="http://www.w3.org/2001/XMLSchema-instance" xsi:noNamespaceSchemaLocation="http://sumo.dlr.de/xsd/tripinfo_file.xsd">
    <tripinfo id="90" depart="90.00" departLane="49713109_0" departPos="5.10" departSpeed="0.00" departDelay="0.00" arrival="6607.00" arrivalLane="-125948402_0" arrivalPos="455.34" arrivalSpeed="12.82" duration="6517.00" routeLength="67346.08" waitingTime="493.00" waitingCount="91" stopTime="0.00" timeLoss="2069.75" rerouteNo="768" devices="tripinfo_90" vType="DEFAULT_VEHTYPE" speedFactor="1.02" vaporized=""/>
    <tripinfo id="22" depart="22.00" departLane="-25562204#15_0" departPos="5.10" departSpeed="0.00" departDelay="0.00" arrival="8961.00" arrivalLane="-183715382_0" arrivalPos="174.83" arrivalSpeed="13.50" duration="8939.00" routeLength="86935.36" waitingTime="952.00" waitingCount="150" stopTime="0.00" timeLoss="3092.85" rerouteNo="1028" devices="tripinfo_22" vType="DEFAULT_VEHTYPE" speedFactor="0.97" vaporized=""/>
    <tripinfo id="74" depart="74.00" departLane="-38691675#0_0" departPos="5.10" departSpeed="0.00" departDelay="0.00" arrival="18931.00" arrivalLane="-125813719_0" arrivalPos="111.39" arrivalSpeed="7.19" duration="18857.00" routeLength="130368.48" waitingTime="6154.00" waitingCount="189" stopTime="0.00" timeLoss="9395.34" rerouteNo="1664" devices="tripinfo_74" vType="DEFAULT_VEHTYPE" speedFactor="0.96" vaporized=""/>
    <tripinfo id="86" depart="86.00" departLane="25479968-AddedOnRampEdge_0" departPos="5.10" departSpeed="0.00" departDelay="0.00" arrival="27900.00" arrivalLane="-125813719_0" arrivalPos="111.39" arrivalSpeed="5.46" duration="27814.00" routeLength="188169.57" waitingTime="11194.00" waitingCount="280" stopTime="0.00" timeLoss="15840.67" rerouteNo="1892" devices="tripinfo_86" vType="DEFAULT_VEHTYPE" speedFactor="1.00" vaporized=""/>
    <tripinfo id="1" depart="1.00" departLane="-874458737#0_0" departPos="5.10" departSpeed="0.00" departDelay="0.00" arrival="29146.00" arrivalLane="-125813719_0" arrivalPos="111.39" arrivalSpeed="4.99" duration="29145.00" routeLength="192401.79" waitingTime="11068.00" waitingCount="314" stopTime="0.00" timeLoss="15681.85" rerouteNo="2230" devices="tripinfo_1" vType="DEFAULT_VEHTYPE" speedFactor="0.94" vaporized=""/>
    <tripinfo id="75" depart="75.00" departLane="999254379#0_0" departPos="5.10" departSpeed="0.00" departDelay="0.00" arrival="35600.00" arrivalLane="-125813719_0" arrivalPos="111.39" arrivalSpeed="6.13" duration="35525.00" routeLength="326422.47" waitingTime="6840.00" waitingCount="463" stopTime="0.00" timeLoss="14695.61" rerouteNo="3604" devices="tripinfo_75" vType="DEFAULT_VEHTYPE" speedFactor="0.98" vaporized=""/>
    <tripinfo id="17" depart="17.00" departLane="-987501982_0" departPos="5.10" departSpeed="0.00" departDelay="0.00" arrival="39321.00" arrivalLane="-183715382_0" arrivalPos="174.83" arrivalSpeed="12.66" duration="39304.00" routeLength="252217.74" waitingTime="14153.00" waitingCount="434" stopTime="0.00" timeLoss="20266.34" rerouteNo="3202" devices="tripinfo_17" vType="DEFAULT_VEHTYPE" speedFactor="0.94" vaporized=""/>
    <tripinfo id="12" depart="12.00" departLane="972943389_0" departPos="5.10" departSpeed="0.00" departDelay="0.00" arrival="47132.00" arrivalLane="-183715382_0" arrivalPos="174.83" arrivalSpeed="13.70" duration="47120.00" routeLength="444258.23" waitingTime="8123.00" waitingCount="625" stopTime="0.00" timeLoss="19174.56" rerouteNo="5390" devices="tripinfo_12" vType="DEFAULT_VEHTYPE" speedFactor="1.05" vaporized=""/>
</tripinfos>
