<?xml version="1.0" encoding="UTF-8"?>

<!-- generated on 2023-10-30 13:57:21 by Eclipse SUMO GUI Version 1.18.0
<configuration xmlns:xsi="http://www.w3.org/2001/XMLSchema-instance" xsi:noNamespaceSchemaLocation="http://sumo.dlr.de/xsd/sumoConfiguration.xsd">

    <input>
        <net-file value="osm.net.xml.gz"/>
        <route-files value="osm.rou.xml"/>
        <additional-files value="osm.poly.xml.gz, stop.add.xml, reroute.add.xml"/>
    </input>

    <output>
        <tripinfo-output value="tripinfo.xml"/>
    </output>

    <time>
        <step-length value="1.00"/>
    </time>

    <processing>
        <ignore-route-errors value="true"/>
        <max-num-vehicles value="100"/>
    </processing>

    <routing>
        <device.rerouting.adaptation-steps value="18"/>
        <device.rerouting.adaptation-interval value="10"/>
    </routing>

    <report>
        <verbose value="true"/>
        <duration-log.statistics value="true"/>
        <no-step-log value="true"/>
    </report>

    <traci_server>
        <remote-port value="59964"/>
    </traci_server>

    <gui_only>
        <gui-settings-file value="osm.view.xml"/>
    </gui_only>

</configuration>
-->

<tripinfos xmlns:xsi="http://www.w3.org/2001/XMLSchema-instance" xsi:noNamespaceSchemaLocation="http://sumo.dlr.de/xsd/tripinfo_file.xsd">
    <tripinfo id="87" depart="87.00" departLane="841705340#1_0" departPos="5.10" departSpeed="0.00" departDelay="0.00" arrival="14672.00" arrivalLane="-125948402_0" arrivalPos="455.34" arrivalSpeed="14.09" duration="14585.00" routeLength="151817.36" waitingTime="1183.00" waitingCount="237" stopTime="0.00" timeLoss="4889.78" rerouteNo="1705" devices="tripinfo_87" vType="DEFAULT_VEHTYPE" speedFactor="1.04" vaporized=""/>
    <tripinfo id="77" depart="77.00" departLane="-290734563#2_0" departPos="5.10" departSpeed="0.00" departDelay="0.00" arrival="32058.00" arrivalLane="-125948402_0" arrivalPos="455.34" arrivalSpeed="12.41" duration="31981.00" routeLength="313966.16" waitingTime="3573.00" waitingCount="418" stopTime="0.00" timeLoss="11147.28" rerouteNo="3445" devices="tripinfo_77" vType="DEFAULT_VEHTYPE" speedFactor="0.98" vaporized=""/>
    <tripinfo id="22" depart="22.00" departLane="-25562204#15_0" departPos="5.10" departSpeed="0.00" departDelay="0.00" arrival="36906.00" arrivalLane="-125948402_0" arrivalPos="455.34" arrivalSpeed="12.41" duration="36884.00" routeLength="278540.31" waitingTime="11225.00" waitingCount="443" stopTime="0.00" timeLoss="18035.16" rerouteNo="3165" devices="tripinfo_22" vType="DEFAULT_VEHTYPE" speedFactor="0.97" vaporized=""/>
    <tripinfo id="30" depart="30.00" departLane="999254376#0_0" departPos="5.10" departSpeed="0.00" departDelay="0.00" arrival="38118.00" arrivalLane="-125813719_0" arrivalPos="111.39" arrivalSpeed="7.09" duration="38088.00" routeLength="323561.35" waitingTime="10482.00" waitingCount="488" stopTime="0.00" timeLoss="19573.66" rerouteNo="3728" devices="tripinfo_30" vType="DEFAULT_VEHTYPE" speedFactor="1.18" vaporized=""/>
    <tripinfo id="71" depart="71.00" departLane="-841720726_0" departPos="5.10" departSpeed="0.00" departDelay="0.00" arrival="59028.00" arrivalLane="-125948402_0" arrivalPos="455.34" arrivalSpeed="13.46" duration="58957.00" routeLength="372560.50" waitingTime="23919.00" waitingCount="669" stopTime="0.00" timeLoss="33312.38" rerouteNo="4393" devices="tripinfo_71" vType="DEFAULT_VEHTYPE" speedFactor="0.97" vaporized=""/>
    <tripinfo id="57" depart="57.00" departLane="958823492_0" departPos="5.10" departSpeed="0.00" departDelay="0.00" arrival="63087.00" arrivalLane="-125813719_0" arrivalPos="111.39" arrivalSpeed="8.58" duration="63030.00" routeLength="535556.60" waitingTime="16870.00" waitingCount="814" stopTime="0.00" timeLoss="30745.73" rerouteNo="5917" devices="tripinfo_57" vType="DEFAULT_VEHTYPE" speedFactor="1.14" vaporized=""/>
    <tripinfo id="81" depart="81.00" departLane="-49713115_0" departPos="5.10" departSpeed="0.00" departDelay="0.00" arrival="68928.00" arrivalLane="-125813719_0" arrivalPos="111.39" arrivalSpeed="5.69" duration="68847.00" routeLength="676546.68" waitingTime="8988.00" waitingCount="838" stopTime="0.00" timeLoss="25087.65" rerouteNo="7934" devices="tripinfo_81" vType="DEFAULT_VEHTYPE" speedFactor="1.00" vaporized=""/>
    <tripinfo id="49" depart="49.00" departLane="987501977_0" departPos="5.10" departSpeed="0.00" departDelay="0.00" arrival="71663.00" arrivalLane="-125948402_0" arrivalPos="455.34" arrivalSpeed="11.54" duration="71614.00" routeLength="530707.21" waitingTime="18097.00" waitingCount="849" stopTime="0.00" timeLoss="29906.53" rerouteNo="5884" devices="tripinfo_49" vType="DEFAULT_VEHTYPE" speedFactor="0.85" vaporized=""/>
    <tripinfo id="66" depart="67.00" departLane="951261274#0_0" departPos="5.10" departSpeed="0.00" departDelay="1.00" arrival="97887.00" arrivalLane="-125813719_0" arrivalPos="111.39" arrivalSpeed="5.73" duration="97820.00" routeLength="625360.82" waitingTime="34863.00" waitingCount="1064" stopTime="0.00" timeLoss="50311.63" rerouteNo="7702" devices="tripinfo_66" vType="DEFAULT_VEHTYPE" speedFactor="0.91" vaporized=""/>
</tripinfos>
