<?xml version="1.0" encoding="UTF-8"?>

<!-- generated on 2023-12-04 02:34:11 by Eclipse SUMO sumo Version 1.18.0
<configuration xmlns:xsi="http://www.w3.org/2001/XMLSchema-instance" xsi:noNamespaceSchemaLocation="http://sumo.dlr.de/xsd/sumoConfiguration.xsd">

    <input>
        <net-file value="osm.net.xml.gz"/>
        <route-files value="osm.rou.xml"/>
        <additional-files value="osm.poly.xml.gz, stop.add.xml, reroute.add.xml"/>
    </input>

    <output>
        <tripinfo-output value="tripinfo.xml"/>
    </output>

    <time>
        <step-length value="1.00"/>
    </time>

    <processing>
        <ignore-route-errors value="true"/>
        <max-num-vehicles value="100"/>
    </processing>

    <routing>
        <device.rerouting.adaptation-steps value="18"/>
        <device.rerouting.adaptation-interval value="10"/>
    </routing>

    <report>
        <verbose value="true"/>
        <duration-log.statistics value="true"/>
        <no-step-log value="true"/>
    </report>

    <traci_server>
        <remote-port value="65223"/>
    </traci_server>

    <gui_only>
        <gui-settings-file value="osm.view.xml"/>
        <quit-on-end value="true"/>
        <start value="true"/>
    </gui_only>

</configuration>
-->

<tripinfos xmlns:xsi="http://www.w3.org/2001/XMLSchema-instance" xsi:noNamespaceSchemaLocation="http://sumo.dlr.de/xsd/tripinfo_file.xsd">
    <tripinfo id="28" depart="28.00" departLane="-38606812#7_0" departPos="5.10" departSpeed="0.00" departDelay="0.00" arrival="14028.00" arrivalLane="-125948402_0" arrivalPos="455.34" arrivalSpeed="14.95" duration="14000.00" routeLength="137417.84" waitingTime="1638.00" waitingCount="233" stopTime="0.00" timeLoss="5602.27" rerouteNo="1809" devices="tripinfo_28" vType="DEFAULT_VEHTYPE" speedFactor="1.13" vaporized=""/>
    <tripinfo id="71" depart="71.00" departLane="-841720726_0" departPos="5.10" departSpeed="0.00" departDelay="0.00" arrival="15699.00" arrivalLane="-125948402_0" arrivalPos="455.34" arrivalSpeed="12.33" duration="15628.00" routeLength="153638.40" waitingTime="1496.00" waitingCount="264" stopTime="0.00" timeLoss="5117.36" rerouteNo="1754" devices="tripinfo_71" vType="DEFAULT_VEHTYPE" speedFactor="0.97" vaporized=""/>
    <tripinfo id="68" depart="68.00" departLane="-25562204#0_0" departPos="5.10" departSpeed="0.00" departDelay="0.00" arrival="16711.00" arrivalLane="-125813719_0" arrivalPos="111.39" arrivalSpeed="6.68" duration="16643.00" routeLength="146175.10" waitingTime="3616.00" waitingCount="199" stopTime="0.00" timeLoss="7541.92" rerouteNo="1516" devices="tripinfo_68" vType="DEFAULT_VEHTYPE" speedFactor="1.04" vaporized=""/>
    <tripinfo id="70" depart="70.00" departLane="25518822_0" departPos="5.10" departSpeed="0.00" departDelay="0.00" arrival="17013.00" arrivalLane="-125813719_0" arrivalPos="111.39" arrivalSpeed="5.88" duration="16943.00" routeLength="154034.29" waitingTime="3516.00" waitingCount="253" stopTime="0.00" timeLoss="7016.37" rerouteNo="1670" devices="tripinfo_70" vType="DEFAULT_VEHTYPE" speedFactor="1.02" vaporized=""/>
    <tripinfo id="99" depart="99.00" departLane="E0_0" departPos="0.15" departSpeed="0.00" departDelay="0.00" arrival="20823.00" arrivalLane="-125948402_0" arrivalPos="455.34" arrivalSpeed="7.14" duration="20724.00" routeLength="184381.15" waitingTime="4446.00" waitingCount="291" stopTime="0.00" timeLoss="9448.04" rerouteNo="2240" devices="tripinfo_99" vType="DEFAULT_VEHTYPE" speedFactor="1.10" vaporized=""/>
    <tripinfo id="32" depart="32.00" departLane="90746176#1_0" departPos="5.10" departSpeed="0.00" departDelay="0.00" arrival="22456.00" arrivalLane="-125948402_0" arrivalPos="455.34" arrivalSpeed="13.38" duration="22424.00" routeLength="214144.34" waitingTime="3009.00" waitingCount="322" stopTime="0.00" timeLoss="8285.93" rerouteNo="2336" devices="tripinfo_32" vType="DEFAULT_VEHTYPE" speedFactor="1.01" vaporized=""/>
    <tripinfo id="40" depart="40.00" departLane="274699798_0" departPos="5.10" departSpeed="0.00" departDelay="0.00" arrival="22936.00" arrivalLane="-125813719_0" arrivalPos="111.39" arrivalSpeed="8.76" duration="22896.00" routeLength="183609.89" waitingTime="6185.00" waitingCount="313" stopTime="0.00" timeLoss="11164.07" rerouteNo="2219" devices="tripinfo_40" vType="DEFAULT_VEHTYPE" speedFactor="1.03" vaporized=""/>
    <tripinfo id="45" depart="45.00" departLane="-25562213#1_0" departPos="5.10" departSpeed="0.00" departDelay="0.00" arrival="29823.00" arrivalLane="-125948402_0" arrivalPos="455.34" arrivalSpeed="14.49" duration="29778.00" routeLength="269382.91" waitingTime="7313.00" waitingCount="385" stopTime="0.00" timeLoss="14206.16" rerouteNo="2824" devices="tripinfo_45" vType="DEFAULT_VEHTYPE" speedFactor="1.09" vaporized=""/>
    <tripinfo id="57" depart="57.00" departLane="958823492_0" departPos="5.10" departSpeed="0.00" departDelay="0.00" arrival="31780.00" arrivalLane="-125813719_0" arrivalPos="111.39" arrivalSpeed="5.82" duration="31723.00" routeLength="313720.24" waitingTime="5319.00" waitingCount="435" stopTime="0.00" timeLoss="13325.43" rerouteNo="3493" devices="tripinfo_57" vType="DEFAULT_VEHTYPE" speedFactor="1.14" vaporized=""/>
    <tripinfo id="78" depart="78.00" departLane="-958823495#0_0" departPos="0.20" departSpeed="0.00" departDelay="0.00" arrival="37051.00" arrivalLane="-125813719_0" arrivalPos="111.39" arrivalSpeed="4.82" duration="36973.00" routeLength="337175.45" waitingTime="6524.00" waitingCount="531" stopTime="0.00" timeLoss="14864.86" rerouteNo="3821" devices="tripinfo_78" vType="DEFAULT_VEHTYPE" speedFactor="1.01" vaporized=""/>
    <tripinfo id="39" depart="39.00" departLane="-841705339_0" departPos="5.10" departSpeed="0.00" departDelay="0.00" arrival="41409.00" arrivalLane="-125948402_0" arrivalPos="455.34" arrivalSpeed="11.98" duration="41370.00" routeLength="296919.62" waitingTime="12187.00" waitingCount="446" stopTime="0.00" timeLoss="19415.83" rerouteNo="3562" devices="tripinfo_39" vType="DEFAULT_VEHTYPE" speedFactor="0.90" vaporized=""/>
    <tripinfo id="98" depart="98.00" departLane="25562205_0" departPos="5.10" departSpeed="0.00" departDelay="0.00" arrival="41468.00" arrivalLane="-125813719_0" arrivalPos="111.39" arrivalSpeed="5.30" duration="41370.00" routeLength="350705.92" waitingTime="10156.00" waitingCount="506" stopTime="0.00" timeLoss="20160.77" rerouteNo="4321" devices="tripinfo_98" vType="DEFAULT_VEHTYPE" speedFactor="1.12" vaporized=""/>
    <tripinfo id="92" depart="92.00" departLane="125807797#3_0" departPos="5.10" departSpeed="0.00" departDelay="0.00" arrival="42408.00" arrivalLane="-125813719_0" arrivalPos="111.39" arrivalSpeed="5.67" duration="42316.00" routeLength="323264.72" waitingTime="9756.00" waitingCount="436" stopTime="0.00" timeLoss="16853.55" rerouteNo="3500" devices="tripinfo_92" vType="DEFAULT_VEHTYPE" speedFactor="0.83" vaporized=""/>
    <tripinfo id="60" depart="60.00" departLane="655740449#6_0" departPos="5.10" departSpeed="0.00" departDelay="0.00" arrival="49036.00" arrivalLane="-125948402_0" arrivalPos="455.34" arrivalSpeed="14.10" duration="48976.00" routeLength="451098.41" waitingTime="10727.00" waitingCount="600" stopTime="0.00" timeLoss="22090.35" rerouteNo="4954" devices="tripinfo_60" vType="DEFAULT_VEHTYPE" speedFactor="1.08" vaporized=""/>
    <tripinfo id="29" depart="29.00" departLane="-38606765_0" departPos="5.10" departSpeed="0.00" departDelay="0.00" arrival="55718.00" arrivalLane="-125948402_0" arrivalPos="455.34" arrivalSpeed="12.10" duration="55689.00" routeLength="324240.38" waitingTime="23486.00" waitingCount="539" stopTime="0.00" timeLoss="32078.38" rerouteNo="3859" devices="tripinfo_29" vType="DEFAULT_VEHTYPE" speedFactor="0.93" vaporized=""/>
    <tripinfo id="82" depart="82.00" departLane="91022458#2_0" departPos="5.10" departSpeed="0.00" departDelay="0.00" arrival="61548.00" arrivalLane="-125813719_0" arrivalPos="111.39" arrivalSpeed="4.85" duration="61466.00" routeLength="343348.49" waitingTime="28257.00" waitingCount="628" stopTime="0.00" timeLoss="37510.47" rerouteNo="4049" devices="tripinfo_82" vType="DEFAULT_VEHTYPE" speedFactor="1.02" vaporized=""/>
    <tripinfo id="59" depart="59.00" departLane="38606683_0" departPos="5.10" departSpeed="0.00" departDelay="0.00" arrival="62157.00" arrivalLane="-125813719_0" arrivalPos="111.39" arrivalSpeed="7.28" duration="62098.00" routeLength="555605.76" waitingTime="11415.00" waitingCount="681" stopTime="0.00" timeLoss="24304.63" rerouteNo="6186" devices="tripinfo_59" vType="DEFAULT_VEHTYPE" speedFactor="0.97" vaporized=""/>
    <tripinfo id="64" depart="64.00" departLane="951261274#0_0" departPos="5.10" departSpeed="0.00" departDelay="0.00" arrival="71737.00" arrivalLane="-125948402_0" arrivalPos="455.34" arrivalSpeed="12.59" duration="71673.00" routeLength="540747.06" waitingTime="21263.00" waitingCount="729" stopTime="0.00" timeLoss="33959.00" rerouteNo="6140" devices="tripinfo_64" vType="DEFAULT_VEHTYPE" speedFactor="0.94" vaporized=""/>
    <tripinfo id="13" depart="13.00" departLane="-25562204#23_0" departPos="5.10" departSpeed="0.00" departDelay="0.00" arrival="76942.00" arrivalLane="-125948402_0" arrivalPos="455.34" arrivalSpeed="15.39" duration="76929.00" routeLength="783450.93" waitingTime="11482.00" waitingCount="978" stopTime="0.00" timeLoss="31238.71" rerouteNo="8567" devices="tripinfo_13" vType="DEFAULT_VEHTYPE" speedFactor="1.12" vaporized=""/>
    <tripinfo id="73" depart="73.00" departLane="25562204#26_0" departPos="5.10" departSpeed="0.00" departDelay="0.00" arrival="81598.00" arrivalLane="-125813719_0" arrivalPos="111.39" arrivalSpeed="6.16" duration="81525.00" routeLength="705093.35" waitingTime="18622.00" waitingCount="1045" stopTime="0.00" timeLoss="36735.77" rerouteNo="8423" devices="tripinfo_73" vType="DEFAULT_VEHTYPE" speedFactor="1.06" vaporized=""/>
    <tripinfo id="2" depart="2.00" departLane="49713116_0" departPos="5.10" departSpeed="0.00" departDelay="0.00" arrival="84678.00" arrivalLane="-125813719_0" arrivalPos="111.39" arrivalSpeed="8.42" duration="84676.00" routeLength="651953.36" waitingTime="25824.00" waitingCount="1000" stopTime="0.00" timeLoss="42372.09" rerouteNo="7184" devices="tripinfo_2" vType="DEFAULT_VEHTYPE" speedFactor="1.01" vaporized=""/>
</tripinfos>
